2
Properties=species:S:1:pos:R:3:forces:R:3:energies:R:1 energy=14.004002317805558 free_energy=14.004002317805558 pbc="F F F"
He      -1.25000000       0.00000000       0.00000000     -90.58231450       0.00000000       0.00000000       7.00200116
He       1.25000000       0.00000000       0.00000000      90.58231450       0.00000000       0.00000000       7.00200116
2
Properties=species:S:1:pos:R:3:forces:R:3:energies:R:1 energy=12.906625167710272 free_energy=12.906625167710272 pbc="F F F"
He      -1.25628141       0.00000000       0.00000000     -84.19882514       0.00000000       0.00000000       6.45331258
He       1.25628141       0.00000000       0.00000000      84.19882514       0.00000000       0.00000000       6.45331258
2
Properties=species:S:1:pos:R:3:forces:R:3:energies:R:1 energy=11.886551170285909 free_energy=11.886551170285909 pbc="F F F"
He      -1.26256281       0.00000000       0.00000000     -78.26981380       0.00000000       0.00000000       5.94327559
He       1.26256281       0.00000000       0.00000000      78.26981380       0.00000000       0.00000000       5.94327559
2
Properties=species:S:1:pos:R:3:forces:R:3:energies:R:1 energy=10.938285050451988 free_energy=10.938285050451988 pbc="F F F"
He      -1.26884422       0.00000000       0.00000000     -72.76162674       0.00000000       0.00000000       5.46914253
He       1.26884422       0.00000000       0.00000000      72.76162674       0.00000000       0.00000000       5.46914253
2
Properties=species:S:1:pos:R:3:forces:R:3:energies:R:1 energy=10.056737664491886 free_energy=10.056737664491886 pbc="F F F"
He      -1.27512563       0.00000000       0.00000000     -67.64322440       0.00000000       0.00000000       5.02836883
He       1.27512563       0.00000000       0.00000000      67.64322440       0.00000000       0.00000000       5.02836883
2
Properties=species:S:1:pos:R:3:forces:R:3:energies:R:1 energy=9.237194519286588 free_energy=9.237194519286588 pbc="F F F"
He      -1.28140704       0.00000000       0.00000000     -62.88596798       0.00000000       0.00000000       4.61859726
He       1.28140704       0.00000000       0.00000000      62.88596798       0.00000000       0.00000000       4.61859726
2
Properties=species:S:1:pos:R:3:forces:R:3:energies:R:1 energy=8.475286855788267 free_energy=8.475286855788267 pbc="F F F"
He      -1.28768844       0.00000000       0.00000000     -58.46342433       0.00000000       0.00000000       4.23764343
He       1.28768844       0.00000000       0.00000000      58.46342433       0.00000000       0.00000000       4.23764343
2
Properties=species:S:1:pos:R:3:forces:R:3:energies:R:1 energy=7.766965077386382 free_energy=7.766965077386382 pbc="F F F"
He      -1.29396985       0.00000000       0.00000000     -54.35118751       0.00000000       0.00000000       3.88348254
He       1.29396985       0.00000000       0.00000000      54.35118751       0.00000000       0.00000000       3.88348254
2
Properties=species:S:1:pos:R:3:forces:R:3:energies:R:1 energy=7.108474323493674 free_energy=7.108474323493674 pbc="F F F"
He      -1.30025126       0.00000000       0.00000000     -50.52671546       0.00000000       0.00000000       3.55423716
He       1.30025126       0.00000000       0.00000000      50.52671546       0.00000000       0.00000000       3.55423716
2
Properties=species:S:1:pos:R:3:forces:R:3:energies:R:1 energy=6.496332006503404 free_energy=6.496332006503404 pbc="F F F"
He      -1.30653266       0.00000000       0.00000000     -46.96918054       0.00000000       0.00000000       3.24816600
He       1.30653266       0.00000000       0.00000000      46.96918054       0.00000000       0.00000000       3.24816600
2
Properties=species:S:1:pos:R:3:forces:R:3:energies:R:1 energy=5.9273071464322244 free_energy=5.9273071464322244 pbc="F F F"
He      -1.31281407       0.00000000       0.00000000     -43.65933263       0.00000000       0.00000000       2.96365357
He       1.31281407       0.00000000       0.00000000      43.65933263       0.00000000       0.00000000       2.96365357
2
Properties=species:S:1:pos:R:3:forces:R:3:energies:R:1 energy=5.398401352219089 free_energy=5.398401352219089 pbc="F F F"
He      -1.31909548       0.00000000       0.00000000     -40.57937370       0.00000000       0.00000000       2.69920068
He       1.31909548       0.00000000       0.00000000      40.57937370       0.00000000       0.00000000       2.69920068
2
Properties=species:S:1:pos:R:3:forces:R:3:energies:R:1 energy=4.906831311953664 free_energy=4.906831311953664 pbc="F F F"
He      -1.32537688       0.00000000       0.00000000     -37.71284285       0.00000000       0.00000000       2.45341566
He       1.32537688       0.00000000       0.00000000      37.71284285       0.00000000       0.00000000       2.45341566
2
Properties=species:S:1:pos:R:3:forces:R:3:energies:R:1 energy=4.450012666381055 free_energy=4.450012666381055 pbc="F F F"
He      -1.33165829       0.00000000       0.00000000     -35.04451089       0.00000000       0.00000000       2.22500633
He       1.33165829       0.00000000       0.00000000      35.04451089       0.00000000       0.00000000       2.22500633
2
Properties=species:S:1:pos:R:3:forces:R:3:energies:R:1 energy=4.025545150999404 free_energy=4.025545150999404 pbc="F F F"
He      -1.33793970       0.00000000       0.00000000     -32.56028369       0.00000000       0.00000000       2.01277258
He       1.33793970       0.00000000       0.00000000      32.56028369       0.00000000       0.00000000       2.01277258
2
Properties=species:S:1:pos:R:3:forces:R:3:energies:R:1 energy=3.631198902030925 free_energy=3.631198902030925 pbc="F F F"
He      -1.34422111       0.00000000       0.00000000     -30.24711343       0.00000000       0.00000000       1.81559945
He       1.34422111       0.00000000       0.00000000      30.24711343       0.00000000       0.00000000       1.81559945
2
Properties=species:S:1:pos:R:3:forces:R:3:energies:R:1 energy=3.264901830608352 free_energy=3.264901830608352 pbc="F F F"
He      -1.35050251       0.00000000       0.00000000     -28.09291716       0.00000000       0.00000000       1.63245092
He       1.35050251       0.00000000       0.00000000      28.09291716       0.00000000       0.00000000       1.63245092
2
Properties=species:S:1:pos:R:3:forces:R:3:energies:R:1 energy=2.9247279777573976 free_energy=2.9247279777573976 pbc="F F F"
He      -1.35678392       0.00000000       0.00000000     -26.08650201       0.00000000       0.00000000       1.46236399
He       1.35678392       0.00000000       0.00000000      26.08650201       0.00000000       0.00000000       1.46236399
2
Properties=species:S:1:pos:R:3:forces:R:3:energies:R:1 energy=2.6088867702538385 free_energy=2.6088867702538385 pbc="F F F"
He      -1.36306533       0.00000000       0.00000000     -24.21749647       0.00000000       0.00000000       1.30444339
He       1.36306533       0.00000000       0.00000000      24.21749647       0.00000000       0.00000000       1.30444339
2
Properties=species:S:1:pos:R:3:forces:R:3:energies:R:1 energy=2.315713104257676 free_energy=2.315713104257676 pbc="F F F"
He      -1.36934673       0.00000000       0.00000000     -22.47628723       0.00000000       0.00000000       1.15785655
He       1.36934673       0.00000000       0.00000000      22.47628723       0.00000000       0.00000000       1.15785655
2
Properties=species:S:1:pos:R:3:forces:R:3:energies:R:1 energy=2.0436581898424064 free_energy=2.0436581898424064 pbc="F F F"
He      -1.37562814       0.00000000       0.00000000     -20.85396115       0.00000000       0.00000000       1.02182909
He       1.37562814       0.00000000       0.00000000      20.85396115       0.00000000       0.00000000       1.02182909
2
Properties=species:S:1:pos:R:3:forces:R:3:energies:R:1 energy=1.7912810951987055 free_energy=1.7912810951987055 pbc="F F F"
He      -1.38190955       0.00000000       0.00000000     -19.34225183       0.00000000       0.00000000       0.89564055
He       1.38190955       0.00000000       0.00000000      19.34225183       0.00000000       0.00000000       0.89564055
2
Properties=species:S:1:pos:R:3:forces:R:3:energies:R:1 energy=1.5572409344531914 free_energy=1.5572409344531914 pbc="F F F"
He      -1.38819095       0.00000000       0.00000000     -17.93349051       0.00000000       0.00000000       0.77862047
He       1.38819095       0.00000000       0.00000000      17.93349051       0.00000000       0.00000000       0.77862047
2
Properties=species:S:1:pos:R:3:forces:R:3:energies:R:1 energy=1.3402896477479231 free_energy=1.3402896477479231 pbc="F F F"
He      -1.39447236       0.00000000       0.00000000     -16.62056081       0.00000000       0.00000000       0.67014482
He       1.39447236       0.00000000       0.00000000      16.62056081       0.00000000       0.00000000       0.67014482
2
Properties=species:S:1:pos:R:3:forces:R:3:energies:R:1 energy=1.139265326519153 free_energy=1.139265326519153 pbc="F F F"
He      -1.40075377       0.00000000       0.00000000     -15.39685716       0.00000000       0.00000000       0.56963266
He       1.40075377       0.00000000       0.00000000      15.39685716       0.00000000       0.00000000       0.56963266
2
Properties=species:S:1:pos:R:3:forces:R:3:energies:R:1 energy=0.9530860408305424 free_energy=0.9530860408305424 pbc="F F F"
He      -1.40703518       0.00000000       0.00000000     -14.25624642       0.00000000       0.00000000       0.47654302
He       1.40703518       0.00000000       0.00000000      14.25624642       0.00000000       0.00000000       0.47654302
2
Properties=species:S:1:pos:R:3:forces:R:3:energies:R:1 energy=0.7807441291924855 free_energy=0.7807441291924855 pbc="F F F"
He      -1.41331658       0.00000000       0.00000000     -13.19303254       0.00000000       0.00000000       0.39037206
He       1.41331658       0.00000000       0.00000000      13.19303254       0.00000000       0.00000000       0.39037206
2
Properties=species:S:1:pos:R:3:forces:R:3:energies:R:1 energy=0.6213009145649835 free_energy=0.6213009145649835 pbc="F F F"
He      -1.41959799       0.00000000       0.00000000     -12.20192403       0.00000000       0.00000000       0.31065046
He       1.41959799       0.00000000       0.00000000      12.20192403       0.00000000       0.00000000       0.31065046
2
Properties=species:S:1:pos:R:3:forces:R:3:energies:R:1 energy=0.4738818132258187 free_energy=0.4738818132258187 pbc="F F F"
He      -1.42587940       0.00000000       0.00000000     -11.27800393       0.00000000       0.00000000       0.23694091
He       1.42587940       0.00000000       0.00000000      11.27800393       0.00000000       0.00000000       0.23694091
2
Properties=species:S:1:pos:R:3:forces:R:3:energies:R:1 energy=0.33767180591313295 free_energy=0.33767180591313295 pbc="F F F"
He      -1.43216080       0.00000000       0.00000000     -10.41670210       0.00000000       0.00000000       0.16883590
He       1.43216080       0.00000000       0.00000000      10.41670210       0.00000000       0.00000000       0.16883590
2
Properties=species:S:1:pos:R:3:forces:R:3:energies:R:1 energy=0.21191124314576462 free_energy=0.21191124314576462 pbc="F F F"
He      -1.43844221       0.00000000       0.00000000      -9.61376972       0.00000000       0.00000000       0.10595562
He       1.43844221       0.00000000       0.00000000       9.61376972       0.00000000       0.00000000       0.10595562
2
Properties=species:S:1:pos:R:3:forces:R:3:energies:R:1 energy=0.0958919589059031 free_energy=0.0958919589059031 pbc="F F F"
He      -1.44472362       0.00000000       0.00000000      -8.86525568       0.00000000       0.00000000       0.04794598
He       1.44472362       0.00000000       0.00000000       8.86525568       0.00000000       0.00000000       0.04794598
2
Properties=species:S:1:pos:R:3:forces:R:3:energies:R:1 energy=-0.01104633104351513 free_energy=-0.01104633104351513 pbc="F F F"
He      -1.45100503       0.00000000       0.00000000      -8.16748481       0.00000000       0.00000000      -0.00552317
He       1.45100503       0.00000000       0.00000000       8.16748481       0.00000000       0.00000000      -0.00552317
2
Properties=species:S:1:pos:R:3:forces:R:3:energies:R:1 energy=-0.1095193680233226 free_energy=-0.1095193680233226 pbc="F F F"
He      -1.45728643       0.00000000       0.00000000      -7.51703784       0.00000000       0.00000000      -0.05475968
He       1.45728643       0.00000000       0.00000000       7.51703784       0.00000000       0.00000000      -0.05475968
2
Properties=species:S:1:pos:R:3:forces:R:3:energies:R:1 energy=-0.20010144655070047 free_energy=-0.20010144655070047 pbc="F F F"
He      -1.46356784       0.00000000       0.00000000      -6.91073274       0.00000000       0.00000000      -0.10005072
He       1.46356784       0.00000000       0.00000000       6.91073274       0.00000000       0.00000000      -0.10005072
2
Properties=species:S:1:pos:R:3:forces:R:3:energies:R:1 energy=-0.28332828616298267 free_energy=-0.28332828616298267 pbc="F F F"
He      -1.46984925       0.00000000       0.00000000      -6.34560765       0.00000000       0.00000000      -0.14166414
He       1.46984925       0.00000000       0.00000000       6.34560765       0.00000000       0.00000000      -0.14166414
2
Properties=species:S:1:pos:R:3:forces:R:3:energies:R:1 energy=-0.35969969594597906 free_energy=-0.35969969594597906 pbc="F F F"
He      -1.47613065       0.00000000       0.00000000      -5.81890494       0.00000000       0.00000000      -0.17984985
He       1.47613065       0.00000000       0.00000000       5.81890494       0.00000000       0.00000000      -0.17984985
2
Properties=species:S:1:pos:R:3:forces:R:3:energies:R:1 energy=-0.4296820474133569 free_energy=-0.4296820474133569 pbc="F F F"
He      -1.48241206       0.00000000       0.00000000      -5.32805663       0.00000000       0.00000000      -0.21484102
He       1.48241206       0.00000000       0.00000000       5.32805663       0.00000000       0.00000000      -0.21484102
2
Properties=species:S:1:pos:R:3:forces:R:3:energies:R:1 energy=-0.49371057014770336 free_energy=-0.49371057014770336 pbc="F F F"
He      -1.48869347       0.00000000       0.00000000      -4.87067074       0.00000000       0.00000000      -0.24685529
He       1.48869347       0.00000000       0.00000000       4.87067074       0.00000000       0.00000000      -0.24685529
2
Properties=species:S:1:pos:R:3:forces:R:3:energies:R:1 energy=-0.5521914834806942 free_energy=-0.5521914834806942 pbc="F F F"
He      -1.49497487       0.00000000       0.00000000      -4.44451880       0.00000000       0.00000000      -0.27609574
He       1.49497487       0.00000000       0.00000000       4.44451880       0.00000000       0.00000000      -0.27609574
2
Properties=species:S:1:pos:R:3:forces:R:3:energies:R:1 energy=-0.6055039764491776 free_energy=-0.6055039764491776 pbc="F F F"
He      -1.50125628       0.00000000       0.00000000      -4.04752419       0.00000000       0.00000000      -0.30275199
He       1.50125628       0.00000000       0.00000000       4.04752419       0.00000000       0.00000000      -0.30275199
2
Properties=species:S:1:pos:R:3:forces:R:3:energies:R:1 energy=-0.6540020473090538 free_energy=-0.6540020473090538 pbc="F F F"
He      -1.50753769       0.00000000       0.00000000      -3.67775144       0.00000000       0.00000000      -0.32700102
He       1.50753769       0.00000000       0.00000000       3.67775144       0.00000000       0.00000000      -0.32700102
2
Properties=species:S:1:pos:R:3:forces:R:3:energies:R:1 energy=-0.6980162130114302 free_energy=-0.6980162130114302 pbc="F F F"
He      -1.51381910       0.00000000       0.00000000      -3.33339620       0.00000000       0.00000000      -0.34900811
He       1.51381910       0.00000000       0.00000000       3.33339620       0.00000000       0.00000000      -0.34900811
2
Properties=species:S:1:pos:R:3:forces:R:3:energies:R:1 energy=-0.7378550982397583 free_energy=-0.7378550982397583 pbc="F F F"
He      -1.52010050       0.00000000       0.00000000      -3.01277609       0.00000000       0.00000000      -0.36892755
He       1.52010050       0.00000000       0.00000000       3.01277609       0.00000000       0.00000000      -0.36892755
2
Properties=species:S:1:pos:R:3:forces:R:3:energies:R:1 energy=-0.7738069128658078 free_energy=-0.7738069128658078 pbc="F F F"
He      -1.52638191       0.00000000       0.00000000      -2.71432208       0.00000000       0.00000000      -0.38690346
He       1.52638191       0.00000000       0.00000000       2.71432208       0.00000000       0.00000000      -0.38690346
2
Properties=species:S:1:pos:R:3:forces:R:3:energies:R:1 energy=-0.8061408260014744 free_energy=-0.8061408260014744 pbc="F F F"
He      -1.53266332       0.00000000       0.00000000      -2.43657064       0.00000000       0.00000000      -0.40307041
He       1.53266332       0.00000000       0.00000000       2.43657064       0.00000000       0.00000000      -0.40307041
2
Properties=species:S:1:pos:R:3:forces:R:3:energies:R:1 energy=-0.8351082441970501 free_energy=-0.8351082441970501 pbc="F F F"
He      -1.53894472       0.00000000       0.00000000      -2.17815633       0.00000000       0.00000000      -0.41755412
He       1.53894472       0.00000000       0.00000000       2.17815633       0.00000000       0.00000000      -0.41755412
2
Properties=species:S:1:pos:R:3:forces:R:3:energies:R:1 energy=-0.8609440007604909 free_energy=-0.8609440007604909 pbc="F F F"
He      -1.54522613       0.00000000       0.00000000      -1.93780502       0.00000000       0.00000000      -0.43047200
He       1.54522613       0.00000000       0.00000000       1.93780502       0.00000000       0.00000000      -0.43047200
2
Properties=species:S:1:pos:R:3:forces:R:3:energies:R:1 energy=-0.8838674626419383 free_energy=-0.8838674626419383 pbc="F F F"
He      -1.55150754       0.00000000       0.00000000      -1.71432759       0.00000000       0.00000000      -0.44193373
He       1.55150754       0.00000000       0.00000000       1.71432759       0.00000000       0.00000000      -0.44193373
2
Properties=species:S:1:pos:R:3:forces:R:3:energies:R:1 energy=-0.9040835608396469 free_energy=-0.9040835608396469 pbc="F F F"
He      -1.55778894       0.00000000       0.00000000      -1.50661402       0.00000000       0.00000000      -0.45204178
He       1.55778894       0.00000000       0.00000000       1.50661402       0.00000000       0.00000000      -0.45204178
2
Properties=species:S:1:pos:R:3:forces:R:3:energies:R:1 energy=-0.9217837498339578 free_energy=-0.9217837498339578 pbc="F F F"
He      -1.56407035       0.00000000       0.00000000      -1.31362799       0.00000000       0.00000000      -0.46089187
He       1.56407035       0.00000000       0.00000000       1.31362799       0.00000000       0.00000000      -0.46089187
2
Properties=species:S:1:pos:R:3:forces:R:3:energies:R:1 energy=-0.9371469011418916 free_energy=-0.9371469011418916 pbc="F F F"
He      -1.57035176       0.00000000       0.00000000      -1.13440181       0.00000000       0.00000000      -0.46857345
He       1.57035176       0.00000000       0.00000000       1.13440181       0.00000000       0.00000000      -0.46857345
2
Properties=species:S:1:pos:R:3:forces:R:3:energies:R:1 energy=-0.9503401357033618 free_energy=-0.9503401357033618 pbc="F F F"
He      -1.57663317       0.00000000       0.00000000      -0.96803171       0.00000000       0.00000000      -0.47517007
He       1.57663317       0.00000000       0.00000000       0.96803171       0.00000000       0.00000000      -0.47517007
2
Properties=species:S:1:pos:R:3:forces:R:3:energies:R:1 energy=-0.9615195994583234 free_energy=-0.9615195994583234 pbc="F F F"
He      -1.58291457       0.00000000       0.00000000      -0.81367355       0.00000000       0.00000000      -0.48075980
He       1.58291457       0.00000000       0.00000000       0.81367355       0.00000000       0.00000000      -0.48075980
2
Properties=species:S:1:pos:R:3:forces:R:3:energies:R:1 energy=-0.9708311861498666 free_energy=-0.9708311861498666 pbc="F F F"
He      -1.58919598       0.00000000       0.00000000      -0.67053867       0.00000000       0.00000000      -0.48541559
He       1.58919598       0.00000000       0.00000000       0.67053867       0.00000000       0.00000000      -0.48541559
2
Properties=species:S:1:pos:R:3:forces:R:3:energies:R:1 energy=-0.9784112110891785 free_energy=-0.9784112110891785 pbc="F F F"
He      -1.59547739       0.00000000       0.00000000      -0.53789023       0.00000000       0.00000000      -0.48920561
He       1.59547739       0.00000000       0.00000000       0.53789023       0.00000000       0.00000000      -0.48920561
2
Properties=species:S:1:pos:R:3:forces:R:3:energies:R:1 energy=-0.9843870393423253 free_energy=-0.9843870393423253 pbc="F F F"
He      -1.60175879       0.00000000       0.00000000      -0.41503964       0.00000000       0.00000000      -0.49219352
He       1.60175879       0.00000000       0.00000000       0.41503964       0.00000000       0.00000000      -0.49219352
2
Properties=species:S:1:pos:R:3:forces:R:3:energies:R:1 energy=-0.9888776715441421 free_energy=-0.9888776715441421 pbc="F F F"
He      -1.60804020       0.00000000       0.00000000      -0.30134335       0.00000000       0.00000000      -0.49443884
He       1.60804020       0.00000000       0.00000000       0.30134335       0.00000000       0.00000000      -0.49443884
2
Properties=species:S:1:pos:R:3:forces:R:3:energies:R:1 energy=-0.9919942903093948 free_energy=-0.9919942903093948 pbc="F F F"
He      -1.61432161       0.00000000       0.00000000      -0.19619979       0.00000000       0.00000000      -0.49599715
He       1.61432161       0.00000000       0.00000000       0.19619979       0.00000000       0.00000000      -0.49599715
2
Properties=species:S:1:pos:R:3:forces:R:3:energies:R:1 energy=-0.9938407699942717 free_energy=-0.9938407699942717 pbc="F F F"
He      -1.62060302       0.00000000       0.00000000      -0.09904660       0.00000000       0.00000000      -0.49692038
He       1.62060302       0.00000000       0.00000000       0.09904660       0.00000000       0.00000000      -0.49692038
2
Properties=species:S:1:pos:R:3:forces:R:3:energies:R:1 energy=-0.9945141523607055 free_energy=-0.9945141523607055 pbc="F F F"
He      -1.62688442       0.00000000       0.00000000      -0.00935798       0.00000000       0.00000000      -0.49725708
He       1.62688442       0.00000000       0.00000000       0.00935798       0.00000000       0.00000000      -0.49725708
2
Properties=species:S:1:pos:R:3:forces:R:3:energies:R:1 energy=-0.9941050905107187 free_energy=-0.9941050905107187 pbc="F F F"
He      -1.63316583       0.00000000       0.00000000       0.07335774       0.00000000       0.00000000      -0.49705255
He       1.63316583       0.00000000       0.00000000      -0.07335774       0.00000000       0.00000000      -0.49705255
2
Properties=species:S:1:pos:R:3:forces:R:3:energies:R:1 energy=-0.9926982632867158 free_energy=-0.9926982632867158 pbc="F F F"
He      -1.63944724       0.00000000       0.00000000       0.14956036       0.00000000       0.00000000      -0.49634913
He       1.63944724       0.00000000       0.00000000      -0.14956036       0.00000000       0.00000000      -0.49634913
2
Properties=species:S:1:pos:R:3:forces:R:3:energies:R:1 energy=-0.9903727621752907 free_energy=-0.9903727621752907 pbc="F F F"
He      -1.64572864       0.00000000       0.00000000       0.21967992       0.00000000       0.00000000      -0.49518638
He       1.64572864       0.00000000       0.00000000      -0.21967992       0.00000000       0.00000000      -0.49518638
2
Properties=species:S:1:pos:R:3:forces:R:3:energies:R:1 energy=-0.9872024526056922 free_energy=-0.9872024526056922 pbc="F F F"
He      -1.65201005       0.00000000       0.00000000       0.28411869       0.00000000       0.00000000      -0.49360123
He       1.65201005       0.00000000       0.00000000      -0.28411869       0.00000000       0.00000000      -0.49360123
2
Properties=species:S:1:pos:R:3:forces:R:3:energies:R:1 energy=-0.9832563113986198 free_energy=-0.9832563113986198 pbc="F F F"
He      -1.65829146       0.00000000       0.00000000       0.34325296       0.00000000       0.00000000      -0.49162816
He       1.65829146       0.00000000       0.00000000      -0.34325296       0.00000000       0.00000000      -0.49162816
2
Properties=species:S:1:pos:R:3:forces:R:3:energies:R:1 energy=-0.978598741995687 free_energy=-0.978598741995687 pbc="F F F"
He      -1.66457286       0.00000000       0.00000000       0.39743480       0.00000000       0.00000000      -0.48929937
He       1.66457286       0.00000000       0.00000000      -0.39743480       0.00000000       0.00000000      -0.48929937
2
Properties=species:S:1:pos:R:3:forces:R:3:energies:R:1 energy=-0.973289868983869 free_energy=-0.973289868983869 pbc="F F F"
He      -1.67085427       0.00000000       0.00000000       0.44699359       0.00000000       0.00000000      -0.48664493
He       1.67085427       0.00000000       0.00000000      -0.44699359       0.00000000       0.00000000      -0.48664493
2
Properties=species:S:1:pos:R:3:forces:R:3:energies:R:1 energy=-0.9673858133218547 free_energy=-0.9673858133218547 pbc="F F F"
He      -1.67713568       0.00000000       0.00000000       0.49223756       0.00000000       0.00000000      -0.48369291
He       1.67713568       0.00000000       0.00000000      -0.49223756       0.00000000       0.00000000      -0.48369291
2
Properties=species:S:1:pos:R:3:forces:R:3:energies:R:1 energy=-0.9609389495757457 free_energy=-0.9609389495757457 pbc="F F F"
He      -1.68341709       0.00000000       0.00000000       0.53345513       0.00000000       0.00000000      -0.48046947
He       1.68341709       0.00000000       0.00000000      -0.53345513       0.00000000       0.00000000      -0.48046947
2
Properties=species:S:1:pos:R:3:forces:R:3:energies:R:1 energy=-0.9539981463794204 free_energy=-0.9539981463794204 pbc="F F F"
He      -1.68969849       0.00000000       0.00000000       0.57091623       0.00000000       0.00000000      -0.47699907
He       1.68969849       0.00000000       0.00000000      -0.57091623       0.00000000       0.00000000      -0.47699907
2
Properties=species:S:1:pos:R:3:forces:R:3:energies:R:1 energy=-0.9466089912495013 free_energy=-0.9466089912495013 pbc="F F F"
He      -1.69597990       0.00000000       0.00000000       0.60487348       0.00000000       0.00000000      -0.47330450
He       1.69597990       0.00000000       0.00000000      -0.60487348       0.00000000       0.00000000      -0.47330450
2
Properties=species:S:1:pos:R:3:forces:R:3:energies:R:1 energy=-0.9388140008057448 free_energy=-0.9388140008057448 pbc="F F F"
He      -1.70226131       0.00000000       0.00000000       0.63556332       0.00000000       0.00000000      -0.46940700
He       1.70226131       0.00000000       0.00000000      -0.63556332       0.00000000       0.00000000      -0.46940700
2
Properties=species:S:1:pos:R:3:forces:R:3:energies:R:1 energy=-0.9306528173743235 free_energy=-0.9306528173743235 pbc="F F F"
He      -1.70854271       0.00000000       0.00000000       0.66320708       0.00000000       0.00000000      -0.46532641
He       1.70854271       0.00000000       0.00000000      -0.66320708       0.00000000       0.00000000      -0.46532641
2
Properties=species:S:1:pos:R:3:forces:R:3:energies:R:1 energy=-0.9221623928834494 free_energy=-0.9221623928834494 pbc="F F F"
He      -1.71482412       0.00000000       0.00000000       0.68801190       0.00000000       0.00000000      -0.46108120
He       1.71482412       0.00000000       0.00000000      -0.68801190       0.00000000       0.00000000      -0.46108120
2
Properties=species:S:1:pos:R:3:forces:R:3:energies:R:1 energy=-0.9133771608977032 free_energy=-0.9133771608977032 pbc="F F F"
He      -1.72110553       0.00000000       0.00000000       0.71017169       0.00000000       0.00000000      -0.45668858
He       1.72110553       0.00000000       0.00000000      -0.71017169       0.00000000       0.00000000      -0.45668858
2
Properties=species:S:1:pos:R:3:forces:R:3:energies:R:1 energy=-0.904329197578901 free_energy=-0.904329197578901 pbc="F F F"
He      -1.72738693       0.00000000       0.00000000       0.72986799       0.00000000       0.00000000      -0.45216460
He       1.72738693       0.00000000       0.00000000      -0.72986799       0.00000000       0.00000000      -0.45216460
2
Properties=species:S:1:pos:R:3:forces:R:3:energies:R:1 energy=-0.8950483723070062 free_energy=-0.8950483723070062 pbc="F F F"
He      -1.73366834       0.00000000       0.00000000       0.74727071       0.00000000       0.00000000      -0.44752419
He       1.73366834       0.00000000       0.00000000      -0.74727071       0.00000000       0.00000000      -0.44752419
2
Properties=species:S:1:pos:R:3:forces:R:3:energies:R:1 energy=-0.8855624886441927 free_energy=-0.8855624886441927 pbc="F F F"
He      -1.73994975       0.00000000       0.00000000       0.76253893       0.00000000       0.00000000      -0.44278124
He       1.73994975       0.00000000       0.00000000      -0.76253893       0.00000000       0.00000000      -0.44278124
2
Properties=species:S:1:pos:R:3:forces:R:3:energies:R:1 energy=-0.8758974162783285 free_energy=-0.8758974162783285 pbc="F F F"
He      -1.74623116       0.00000000       0.00000000       0.77582156       0.00000000       0.00000000      -0.43794871
He       1.74623116       0.00000000       0.00000000      -0.77582156       0.00000000       0.00000000      -0.43794871
2
Properties=species:S:1:pos:R:3:forces:R:3:energies:R:1 energy=-0.8660772145386992 free_energy=-0.8660772145386992 pbc="F F F"
He      -1.75251256       0.00000000       0.00000000       0.78725800       0.00000000       0.00000000      -0.43303861