2
Properties=species:S:1:pos:R:3:forces:R:3:energies:R:1 energy=-0.14099842702372287 free_energy=-0.14099842702372287 pbc="F F F"
He      -2.50000000       0.00000000       0.00000000       0.16881716       0.00000000       0.00000000      -0.07049921
He       2.50000000       0.00000000       0.00000000      -0.16881716       0.00000000       0.00000000      -0.07049921
